
    -----------------------------------------------------------------------
          Psi4: An Open-Source Ab Initio Electronic Structure Package
                               Psi4 1.4rc2 

                         Git: Rev {HEAD} 765de96 


    D. G. A. Smith, L. A. Burns, A. C. Simmonett, R. M. Parrish,
    M. C. Schieber, R. Galvelis, P. Kraus, H. Kruse, R. Di Remigio,
    A. Alenaizan, A. M. James, S. Lehtola, J. P. Misiewicz, M. Scheurer,
    R. A. Shaw, J. B. Schriber, Y. Xie, Z. L. Glick, D. A. Sirianni,
    J. S. O'Brien, J. M. Waldrop, A. Kumar, E. G. Hohenstein,
    B. P. Pritchard, B. R. Brooks, H. F. Schaefer III, A. Yu. Sokolov,
    K. Patkowski, A. E. DePrince III, U. Bozkaya, R. A. King,
    F. A. Evangelista, J. M. Turney, T. D. Crawford, C. D. Sherrill,
    J. Chem. Phys. 152(18) 184108 (2020). https://doi.org/10.1063/5.0006002

                            Additional Code Authors
    E. T. Seidl, C. L. Janssen, E. F. Valeev, M. L. Leininger,
    J. F. Gonthier, R. M. Richard, H. R. McAlexander, M. Saitow, X. Wang,
    P. Verma, and M. H. Lechner

             Previous Authors, Complete List of Code Contributors,
                       and Citations for Specific Modules
    https://github.com/psi4/psi4/blob/master/codemeta.json
    https://github.com/psi4/psi4/graphs/contributors
    http://psicode.org/psi4manual/master/introduction.html#citing-psifour

    -----------------------------------------------------------------------


    Psi4 started on: Wednesday, 23 June 2021 11:28PM

    Process ID: 31551
    Host:       TALAIR-M1.local
    PSIDATADIR: /Users/leopold/Applications/miniconda3/envs/p4env/share/psi4
    Memory:     500.0 MiB
    Threads:    1
    
  ==> Input File <==

--------------------------------------------------------------------------

import psi4
psi4.geometry("""
Ne
Ne 1 3.0
""")
psi4.set_options({"freeze_core": "True"})
psi4.energy("ccsd(t)/cc-pvtz")
--------------------------------------------------------------------------

Scratch directory: /tmp/

Scratch directory: /tmp/

*** tstart() called on TALAIR-M1.local
*** at Wed Jun 23 23:28:44 2021

   => Loading Basis Set <=

    Name: CC-PVTZ
    Role: ORBITAL
    Keyword: BASIS
    atoms 1-2 entry NE         line   338 file /Users/leopold/Applications/miniconda3/envs/p4env/share/psi4/basis/cc-pvtz.gbs 


         ---------------------------------------------------------
                                   SCF
               by Justin Turney, Rob Parrish, Andy Simmonett
                          and Daniel G. A. Smith
                              RHF Reference
                        1 Threads,    500 MiB Core
         ---------------------------------------------------------

  ==> Geometry <==

    Molecular point group: d2h
    Full point group: D_inf_h

    Geometry (in Angstrom), charge = 0, multiplicity = 1:

       Center              X                  Y                   Z               Mass       
    ------------   -----------------  -----------------  -----------------  -----------------
         NE           0.000000000000     0.000000000000    -1.500000000000    19.992440176200
         NE           0.000000000000     0.000000000000     1.500000000000    19.992440176200

  Running in d2h symmetry.

  Rotational constants: A = ************  B =      0.18738  C =      0.18738 [cm^-1]
  Rotational constants: A = ************  B =   5617.44567  C =   5617.44567 [MHz]
  Nuclear repulsion =   17.639240355666669

  Charge       = 0
  Multiplicity = 1
  Electrons    = 20
  Nalpha       = 10
  Nbeta        = 10

  ==> Algorithm <==

  SCF Algorithm Type is PK.
  DIIS enabled.
  MOM disabled.
  Fractional occupation disabled.
  Guess Type is SAD.
  Energy threshold   = 1.00e-08
  Density threshold  = 1.00e-08
  Integral threshold = 1.00e-12

  ==> Primary Basis <==

  Basis Set: CC-PVTZ
    Blend: CC-PVTZ
    Number of shells: 20
    Number of basis functions: 60
    Number of Cartesian functions: 70
    Spherical Harmonics?: true
    Max angular momentum: 3

  ==> Integral Setup <==

  Using in-core PK algorithm.
   Calculation information:
      Number of atoms:                   2
      Number of AO shells:              20
      Number of primitives:             52
      Number of atomic orbitals:        70
      Number of basis functions:        60

      Integral cutoff                 1.00e-12
      Number of threads:                 1

  Performing in-core PK
  Using 3350730 doubles for integral storage.
  We computed 15654 shell quartets total.
  Whereas there are 22155 unique shell quartets.

  ==> DiskJK: Disk-Based J/K Matrices <==

    J tasked:                  Yes
    K tasked:                  Yes
    wK tasked:                  No
    Memory [MiB]:              375
    Schwarz Cutoff:          1E-12

    OpenMP threads:              1

  Minimum eigenvalue in the overlap matrix is 4.2423746347E-02.
  Reciprocal condition number of the overlap matrix is 1.9142842998E-02.
    Using symmetric orthogonalization.

  ==> Pre-Iterations <==

  SCF Guess: Superposition of Atomic Densities via on-the-fly atomic UHF (no occupation information).

   -------------------------
    Irrep   Nso     Nmo    
   -------------------------
     Ag        13      13 
     B1g        3       3 
     B2g        7       7 
     B3g        7       7 
     Au         3       3 
     B1u       13      13 
     B2u        7       7 
     B3u        7       7 
   -------------------------
    Total      60      60
   -------------------------

  ==> Iterations <==

                        Total Energy        Delta E     RMS |[F,P]|

   @RHF iter SAD:  -257.06378486526575   -2.57064e+02   0.00000e+00 
   @RHF iter   1:  -257.06376180843654    2.30568e-05   1.11868e-04 DIIS
   @RHF iter   2:  -257.06376355653430   -1.74810e-06   4.64405e-05 DIIS
   @RHF iter   3:  -257.06376376874812   -2.12214e-07   5.22385e-06 DIIS
   @RHF iter   4:  -257.06376377265804   -3.90992e-09   2.28234e-07 DIIS
   @RHF iter   5:  -257.06376377267600   -1.79625e-11   4.19097e-08 DIIS
   @RHF iter   6:  -257.06376377267685   -8.52651e-13   2.12484e-09 DIIS
  Energy and wave function converged.


  ==> Post-Iterations <==

    Orbital Energies [Eh]
    ---------------------

    Doubly Occupied:                                                      

       1B1u  -32.769172     1Ag   -32.769171     2Ag    -1.927512  
       2B1u   -1.926725     3Ag    -0.849864     1B2u   -0.845996  
       1B3u   -0.845996     1B3g   -0.844915     1B2g   -0.844915  
       3B1u   -0.840968  

    Virtual:                                                              

       4Ag     1.004629     2B3u    1.085907     2B2u    1.085907  
       2B3g    1.111962     2B2g    1.111962     4B1u    1.192281  
       5Ag     1.406035     5B1u    1.446931     3B2u    2.814171  
       3B3u    2.814171     6Ag     2.814188     1B1g    2.814188  
       1Au     2.814191     6B1u    2.814191     3B3g    2.814235  
       3B2g    2.814235     7Ag     2.814273     7B1u    2.814874  
       8Ag     6.093080     4B3u    6.146919     4B2u    6.146919  
       4B3g    6.164937     4B2g    6.164937     8B1u    6.234693  
       5B3u    9.647327     5B2u    9.647327     5B3g    9.647327  
       5B2g    9.647327     9B1u    9.647328     2Au     9.647328  
       9Ag     9.647329     2B1g    9.647329     6B2g    9.647332  
       6B3g    9.647332     6B2u    9.647332     6B3u    9.647332  
      10Ag     9.647334    10B1u    9.647338     7B2u   11.227261  
       7B3u   11.227261     3B1g   11.227268    11Ag    11.227268  
       3Au    11.227268    11B1u   11.227268     7B2g   11.227272  
       7B3g   11.227272    12Ag    11.227325    12B1u   11.227466  
      13Ag    11.715075    13B1u   11.782295  

    Final Occupation by Irrep:
             Ag   B1g   B2g   B3g    Au   B1u   B2u   B3u 
    DOCC [     3,    0,    1,    1,    0,    3,    1,    1 ]

  @RHF Final Energy:  -257.06376377267685

   => Energetics <=

    Nuclear Repulsion Energy =             17.6392403556666686
    One-Electron Energy =                -400.4755384043805293
    Two-Electron Energy =                 125.7725342760369927
    Total Energy =                       -257.0637637726768503

Computation Completed


Properties will be evaluated at   0.000000,   0.000000,   0.000000 [a0]

Properties computed using the SCF density matrix

  Nuclear Dipole Moment: [e a0]
     X:     0.0000      Y:     0.0000      Z:     0.0000

  Electronic Dipole Moment: [e a0]
     X:     0.0000      Y:     0.0000      Z:     0.0000

  Dipole Moment: [e a0]
     X:     0.0000      Y:     0.0000      Z:     0.0000     Total:     0.0000

  Dipole Moment: [D]
     X:     0.0000      Y:     0.0000      Z:     0.0000     Total:     0.0000


*** tstop() called on TALAIR-M1.local at Wed Jun 23 23:28:44 2021
Module time:
	user time   =       0.27 seconds =       0.00 minutes
	system time =       0.01 seconds =       0.00 minutes
	total time  =          0 seconds =       0.00 minutes
Total time:
	user time   =       0.27 seconds =       0.00 minutes
	system time =       0.01 seconds =       0.00 minutes
	total time  =          0 seconds =       0.00 minutes
 MINTS: Wrapper to libmints.
   by Justin Turney

   Calculation information:
      Number of threads:                 1
      Number of atoms:                   2
      Number of AO shells:              20
      Number of SO shells:              10
      Number of primitives:             52
      Number of atomic orbitals:        70
      Number of basis functions:        60

      Number of irreps:                  8
      Integral cutoff                 1.00e-12
      Number of functions per irrep: [  13    3    7    7    3   13    7    7 ]

 OEINTS: Overlap, kinetic, potential, dipole, and quadrupole integrals
         stored in file 35.

      Computing two-electron integrals...done
      Computed 180293 non-zero two-electron integrals.
        Stored in file 33.


*** tstart() called on TALAIR-M1.local
*** at Wed Jun 23 23:28:44 2021


	Wfn Parameters:
	--------------------
	Wavefunction         = CCSD_T
	Number of irreps     = 8
	Number of MOs        = 60
	Number of active MOs = 58
	AO-Basis             = NONE
	Semicanonical        = false
	Reference            = RHF
	Print Level          = 1

	IRREP	# MOs	# FZDC	# DOCC	# SOCC	# VIRT	# FZVR
	-----	-----	------	------	------	------	------
	 Ag	   13	    1	    2	    0	    10	    0
	 B1g	   3	    0	    0	    0	    3	    0
	 B2g	   7	    0	    1	    0	    6	    0
	 B3g	   7	    0	    1	    0	    6	    0
	 Au	   3	    0	    0	    0	    3	    0
	 B1u	   13	    1	    2	    0	    10	    0
	 B2u	   7	    0	    1	    0	    6	    0
	 B3u	   7	    0	    1	    0	    6	    0
	Transforming integrals...
	IWL integrals will be deleted.
	(OO|OO)...
	Presorting SO-basis two-electron integrals.
	Sorting File: SO Ints (nn|nn) nbuckets = 1
	Constructing frozen core operators
	Starting first half-transformation.
	Sorting half-transformed integrals.
	First half integral transformation complete.
	Starting second half-transformation.
	Two-electron integral transformation complete.
	(OO|OV)...
	Starting second half-transformation.
	Two-electron integral transformation complete.
	(OO|VV)...
	Starting second half-transformation.
	Two-electron integral transformation complete.
	(OV|OO)...
	Starting first half-transformation.
	Sorting half-transformed integrals.
	First half integral transformation complete.
	Starting second half-transformation.
	Two-electron integral transformation complete.
	(OV|OV)...
	Starting second half-transformation.
	Two-electron integral transformation complete.
	(OV|VV)...
	Starting second half-transformation.
	Two-electron integral transformation complete.
	(VV|OO)...
	Starting first half-transformation.
	Sorting half-transformed integrals.
	First half integral transformation complete.
	Starting second half-transformation.
	Two-electron integral transformation complete.
	(VV|OV)...
	Starting second half-transformation.
	Two-electron integral transformation complete.
	(VV|VV)...
	Starting second half-transformation.
	Two-electron integral transformation complete.
	Frozen core energy     =   -194.04920362080654

	Size of irrep 0 of <ab|cd> integrals:      0.131 (MW) /      1.048 (MB)
	Size of irrep 1 of <ab|cd> integrals:      0.070 (MW) /      0.558 (MB)
	Size of irrep 2 of <ab|cd> integrals:      0.097 (MW) /      0.779 (MB)
	Size of irrep 3 of <ab|cd> integrals:      0.097 (MW) /      0.779 (MB)
	Size of irrep 4 of <ab|cd> integrals:      0.070 (MW) /      0.558 (MB)
	Size of irrep 5 of <ab|cd> integrals:      0.131 (MW) /      1.048 (MB)
	Size of irrep 6 of <ab|cd> integrals:      0.097 (MW) /      0.779 (MB)
	Size of irrep 7 of <ab|cd> integrals:      0.097 (MW) /      0.779 (MB)
	Total:                                     0.791 (MW) /      6.327 (MB)

	Size of irrep 0 of <ia|bc> integrals:      0.023 (MW) /      0.185 (MB)
	Size of irrep 1 of <ia|bc> integrals:      0.010 (MW) /      0.076 (MB)
	Size of irrep 2 of <ia|bc> integrals:      0.016 (MW) /      0.125 (MB)
	Size of irrep 3 of <ia|bc> integrals:      0.016 (MW) /      0.125 (MB)
	Size of irrep 4 of <ia|bc> integrals:      0.010 (MW) /      0.076 (MB)
	Size of irrep 5 of <ia|bc> integrals:      0.023 (MW) /      0.185 (MB)
	Size of irrep 6 of <ia|bc> integrals:      0.016 (MW) /      0.125 (MB)
	Size of irrep 7 of <ia|bc> integrals:      0.016 (MW) /      0.125 (MB)
	Total:                                     0.128 (MW) /      1.022 (MB)

	Size of irrep 0 of tijab amplitudes:       0.004 (MW) /      0.035 (MB)
	Size of irrep 1 of tijab amplitudes:       0.001 (MW) /      0.008 (MB)
	Size of irrep 2 of tijab amplitudes:       0.002 (MW) /      0.020 (MB)
	Size of irrep 3 of tijab amplitudes:       0.002 (MW) /      0.020 (MB)
	Size of irrep 4 of tijab amplitudes:       0.001 (MW) /      0.008 (MB)
	Size of irrep 5 of tijab amplitudes:       0.004 (MW) /      0.035 (MB)
	Size of irrep 6 of tijab amplitudes:       0.002 (MW) /      0.020 (MB)
	Size of irrep 7 of tijab amplitudes:       0.002 (MW) /      0.020 (MB)
	Total:                                     0.021 (MW) /      0.166 (MB)

	Nuclear Rep. energy          =     17.63924035566667
	SCF energy                   =   -257.06376377267685
	One-electron energy          =   -143.45381890400361
	Two-electron energy          =     62.80001839646477
	Reference energy             =   -257.06376377267873

*** tstop() called on TALAIR-M1.local at Wed Jun 23 23:28:44 2021
Module time:
	user time   =       0.08 seconds =       0.00 minutes
	system time =       0.06 seconds =       0.00 minutes
	total time  =          0 seconds =       0.00 minutes
Total time:
	user time   =       0.42 seconds =       0.01 minutes
	system time =       0.08 seconds =       0.00 minutes
	total time  =          0 seconds =       0.00 minutes
            **************************
            *                        *
            *        CCENERGY        *
            *                        *
            **************************

    Nuclear Rep. energy (wfn)     =   17.639240355666669
    SCF energy          (wfn)     = -257.063763772676850
    Reference energy    (file100) = -257.063763772678726

    Input parameters:
    -----------------
    Wave function   =     CCSD_T
    Reference wfn   =     RHF
    Brueckner       =     No
    Memory (Mbytes) =     524.3
    Maxiter         =     50
    R_Convergence   =     1.0e-07
    E_Convergence   =     1.0e-06
    Restart         =     Yes
    DIIS            =     Yes
    AO Basis        =     NONE
    ABCD            =     NEW
    Cache Level     =     2
    Cache Type      =     LOW
    Print Level     =     1
    Num. of threads =     1
    # Amps to Print =     10
    Print MP2 Amps? =     No
    Analyze T2 Amps =     No
    Print Pair Ener =     No
    Local CC        =     No
    SCS-MP2         =     False
    SCSN-MP2        =     False
    SCS-CCSD        =     False

MP2 correlation energy -0.5287744135265733
                Solving CC Amplitude Equations
                ------------------------------
  Iter             Energy              RMS        T1Diag      D1Diag    New D1Diag    D2Diag
  ----     ---------------------    ---------   ----------  ----------  ----------   --------
     0        -0.528774413526573    0.000e+00    0.000000    0.000000    0.000000    0.083645
     1        -0.527156367464818    2.415e-02    0.004296    0.007669    0.007669    0.083999
     2        -0.532184969905012    6.221e-03    0.004264    0.007474    0.007474    0.085729
     3        -0.532850826597290    1.646e-03    0.004517    0.007972    0.007972    0.086147
     4        -0.532791103403857    2.045e-04    0.004506    0.007942    0.007942    0.086175
     5        -0.532803426587236    4.044e-05    0.004507    0.007947    0.007947    0.086183
     6        -0.532804083193158    4.241e-06    0.004506    0.007945    0.007945    0.086183
     7        -0.532804098972408    7.757e-07    0.004506    0.007945    0.007945    0.086183
     8        -0.532804116544825    1.186e-07    0.004506    0.007945    0.007945    0.086183
     9        -0.532804114307560    1.883e-08    0.004506    0.007945    0.007945    0.086183

    Iterations converged.


    Largest TIA Amplitudes:
              1   0         0.0070169099
              6  38        -0.0060940756
              7  44        -0.0060940756
              2  13        -0.0058201574
              3  19        -0.0058201574
              5  28         0.0049375963
              2  15         0.0036950296
              3  21         0.0036950296
              6  40         0.0036938675
              7  46         0.0036938675

    Largest TIjAb Amplitudes:
      5   5   0   0        -0.0191789929
      1   1   0   0        -0.0189979144
      2   2  44  44        -0.0181478236
      3   3  38  38        -0.0181478236
      6   6  38  38        -0.0181331571
      7   7  44  44        -0.0181331571
      2   7  13  44        -0.0180238385
      3   6  19  38        -0.0180238385
      6   3  38  19        -0.0180238385
      7   2  44  13        -0.0180238385

    SCF energy       (wfn)                    = -257.063763772676850
    Reference energy (file100)                = -257.063763772678726

    Opposite-spin MP2 correlation energy      =   -0.390098055161961
    Same-spin MP2 correlation energy          =   -0.138676358364612
    Singles MP2 correlation energy            =   -0.000000000000000
    MP2 correlation energy                    =   -0.528774413526573
      * MP2 total energy                      = -257.592538186205275

    Opposite-spin CCSD correlation energy     =   -0.404999916264920
    Same-spin CCSD correlation energy         =   -0.127804198042639
    Singles CCSD correlation energy           =    0.000000000000000
    CCSD correlation energy                   =   -0.532804114307560
      * CCSD total energy                     = -257.596567886986293

            **************************
            *                        *
            *        CCTRIPLES       *
            *                        *
            **************************


    Wave function   =    CCSD_T
    Reference wfn   =      RHF

    Nuclear Rep. energy (wfn)                =   17.639240355666669
    SCF energy          (wfn)                = -257.063763772676850
    Reference energy    (file100)            = -257.063763772678726
    CCSD energy         (file100)            =   -0.532804114307560
    Total CCSD energy   (file100)            = -257.596567886986293

    Number of ijk index combinations:              120
    Memory available in words               :        65536000
    Approx. words needed per explicit thread:            4000
    Number of threads for explicit ijk threading:    1

    MKL num_threads set to 1 for explicit threading.

    (T) energy                                =   -0.008502587452393
      * CCSD(T) total energy                  = -257.605070474438662


    Psi4 stopped on: Wednesday, 23 June 2021 11:28PM
    Psi4 wall time for execution: 0:00:00.91

*** Psi4 exiting successfully. Buy a developer a beer!
